! Touchstone file from project wilkinson
! Exported from HFSS 13.0.0
! Variables:
!  Hcobre = 0.017mm
!  Hsubstrato = 1.57mm
!  Lfeed = 4.3675cm
!  Lsubstrato = 100mm
!  W50 = 3.06mm
!  W70 = 1.66mm
!  Wcobre = 3.06mm
!  Wresistor = 1.25mm
!  Wsubstrato = 50mm
!  c = 300000000
!  d = 2mm
!  er = 4.3
!  fre = 950000000
!  lambda = 17.47cm
!  lambda4 = 4.3675cm
!  v = 144672846.651124
# GHZ S MA R 50.000000
! Modal data exported
! Port[1] = 1:1
! Port[2] = 2:1
! Port[3] = 3:1
0.1              0.332790130554984 151.336941945437 0.661034320694685 -24.07833092235  0.664864280793235 -24.2857468525457 
                0.661034320691615 -24.0783309222834 0.313071730935546 142.838712949869 0.630478634526797 -28.2891524247317 
                0.664864280793917 -24.2857468526093 0.630478634530845 -28.2891524247997 0.305389406747327 142.072980330772 
! Gamma  !      0.0521457902616589 3.71924337297842 0.0508749456277992 3.71853422901784 0.0514472611065472 3.71876982034239 
! Port Impedance  50               0                50               0                50               0                

0.11             0.331802072716471 148.432416621881 0.661088996797955 -26.4788219170846 0.664749553987566 -26.7031010704556 
                0.66108899680519 -26.4788219199789 0.309120250569587 139.249471515915 0.62362623651945 -30.9827723241063 
                0.664749553995045 -26.7031010710051 0.623626236517498 -30.9827723233894 0.30176073007027 138.414668134981 
! Gamma  !      0.0561626975541892 4.08870781926752 0.0548125908352576 4.08798648946826 0.0554172546678929 4.08822638838812 
! Port Impedance  50               0                50               0                50               0                

0.12             0.330693575614821 145.524381714828 0.661168948639843 -28.8789607169954 0.664649493362618 -29.1186533947594 
                0.661168948650829 -28.8789607226635 0.304910963712417 135.699528495394 0.61635838698566 -33.6420575988154 
                0.664649493376056 -29.1186533958286 0.616358386979388 -33.642057597264 0.297893495834512 134.797156607296 
! Gamma  !      0.0601856203519275 4.45785924332285 0.0587567796794853 4.45713295968284 0.0593930104291529 4.45737371849618 
! Port Impedance  50               0                50               0                50               0                

0.13             0.329465189634843 142.612940531253 0.66127466931421 -31.2790704704866 0.664566740341154 -31.5326614699558 
                0.661274669323611 -31.2790704786305 0.300474902428062 132.191021054751 0.608723850106167 -36.2658587596201 
                0.664566740359621 -31.5326614715589 0.608723850097267 -36.2658587572228 0.293816736704502 131.22275505114  
! Gamma  !      0.0641900483708158 4.82673040898792 0.0626838213260842 4.82600583694715 0.0633505799175834 4.82624447400682 
! Port Impedance  50               0                50               0                50               0                

0.14             0.328117829124512 139.698072019587 0.661405943232293 -33.6794495319954 0.664503264747216 -33.945396444777 
                0.66140594323605 -33.6794495422469 0.295842651130899 128.72560252403  0.600769801970958 -38.8533727324881 
                0.664503264769725 -33.9453964469093 0.60076980196104 -38.8533727292696 0.289558898460089 127.693268251764 
! Gamma  !      0.0681599598000512 5.1953530560517  0.0665783016048835 5.19463620353759 0.0672743857016394 5.19487016885756 
! Port Impedance  50               0                50               0                50               0                

0.15             0.326652629709484 136.779658504263 0.661562024816641 -36.080364359786 0.664460422839311 -36.3571311186625 
                0.661562024811921 -36.0803643717418 0.291043820948776 125.304495292967 0.592541239434959 -41.4041091362855 
                0.66446042286486 -36.3571311213015 0.592541239425469 -41.4041091323039 0.285147396927365 124.210055735708 
! Gamma  !      0.0720859398593928 5.56375648148658 0.0704312262867816 5.56305267140299 0.0711553455935725 5.5632798044803  
! Port Impedance  50               0                50               0                50               0                

0.16             0.325070873509815 133.857507044347 0.661741792676547 -38.4820468323927 0.664439033480472 -38.7681311226891 
                0.66174179266162 -38.4820468456403 0.286106670915418 121.928539585581 0.584080553005843 -43.9178551846515 
                0.664439033508064 -38.7681311257957 0.584080552998009 -43.9178551799936 0.280608297515731 120.774084655114 
! Gamma  !      0.0759635010278952 5.93196684112139 0.0742383710040775 5.93128072669232 0.0749892048852078 5.93149921084628 
! Port Impedance  50               0                50               0                50               0                

0.17             0.323373951960937 130.931365398243 0.661943875930596 -40.8846945345862 0.664439460817622 -41.1786488235026 
                0.661943875904668 -40.8846945487238 0.281057842480911 118.598238471505 0.575427241487794 -46.3946405799104 
                0.664439460846298 -41.1786488270224 0.575427241482584 -46.3946405746861 0.275966090980413 117.385977393534 
! Gamma  !      0.0797916728372736 6.30000693012452 0.0779989014865628 6.29934253730017 0.0787751412297337 6.29955085388218 
! Port Impedance  50               0                50               0                50               0                

0.18             0.321563348038365 128.00093373096  0.662166753476345 -43.2884728683655 0.664461695535473 -43.5889194996105 
                0.662166753439399 -43.288472883015 0.275922183797015 115.313799591284 0.566617746699262 -48.8347034087544 
                0.66446169556433 -43.5889195034759 0.566617746697368 -48.8347034030918 0.271243546636202 114.046054936028 
! Gamma  !      0.083571871895175 6.66789626288472 0.0817142720898204 6.66725704803841 0.0825146504679288 6.66745393282215 
! Port Impedance  50               0                50               0                50               0                

0.19             0.319640627468159 125.065873099087 0.662408829164066 -45.6935181520175 0.66450542981622 -45.999159305285 
                0.662408829116691 -45.6935181668329 0.27072264643725 112.075173960125 0.557685387560158 -51.2384577715876 
                0.664505429844433 -45.9991593094174 0.55768538756199 -51.2384577656264 0.266461628963152 110.754376743803 
! Gamma  !      0.087307030529518 7.0356513242464  0.0853873795484536 7.03504023872945 0.0862106902695172 7.03522464188395 
! Port Impedance  50               0                50               0                50               0                

0.2              0.317607433282012 122.125811560644 0.66266848668668 -48.0999411312316 0.664570123456244 -48.4095645673771 
                0.662668486629929 -48.0999411459035 0.265480240938634 108.882092058469 0.548660374204412 -53.606463651414 
                0.664570123483078 -48.4095645716889 0.54866037421011 -53.6064636452997 0.261639466304512 107.510777573342 
! Gamma  !      0.0910009475197039 7.40328590472446 0.0890219348450003 7.40270546052152 0.0898670442121522 7.40287651087025 
! Port Impedance  50               0                50               0                50               0                

0.21             0.315465480906046 119.180348564101 0.662944128081654 -50.5078305284446 0.664655060215821 -50.8203120229101 
                0.662944128016909 -50.5078305427025 0.260214039848708 105.734097294315 0.539569884484422 -55.9393993406771 
                0.664655060240648 -50.8203120273067 0.539569884493883 -55.9393993345561 0.256794362011083 104.314901460542 
! Gamma  !      0.0946578203133015 7.77081146299003 0.0926220125891413 7.77026379577187 0.0934878653387807 7.77042076954848 
! Port Impedance  50               0                50               0                50               0                

0.22             0.313216552593244 116.229058104913 0.663234199418218 -52.9172564041988 0.664759394530185 -53.2315596790721 
                0.663234199347086 -52.917256417811 0.254941218515737 102.630576849807 0.530438187205538 -58.2380365900709 
                0.664759394552486 -53.2315596834547 0.53043818721844 -58.2380365840855 0.251941839505367 101.166232958785 
! Gamma  !      0.0982819201220086 8.13823748100319 0.0961917396240083 8.1377244083898  0.0970773605445394 8.13786670237856 
! Port Impedance  50               0                50               0                50               0                

0.23             0.310862490899039 113.271491006038 0.663537206745973 -55.3282732071838 0.664882189328526 -55.6434480493834 
                0.663537206670188 -55.3282732199561 0.249677125068283 99.5707898972897 0.521286798541662 -60.5032185194713 
                0.664882189347898 -55.6434480536508 0.52128679855751 -60.5032185137552 0.247095713646429 98.0641256578608 
! Gamma  !      0.101877376154795 8.50557179240015 0.0997350895955605 8.50509486631752 0.100639582191725 8.50522197507681 
! Port Impedance  50               0                50               0                50               0                

0.24             0.308405191356058 110.307176578253 0.663851724842453 -57.7409224583979 0.665022446017778 -58.0561015837306 
                0.663851724763807 -57.7409224701717 0.244435372093572 96.5538931744505 0.51213466021634 -62.7358402355647 
                0.665022446033937 -58.0561015877816 0.512134660234498 -62.7358402302401 0.242268181626392 95.0078279956399 
! Gamma  !      0.10544804103881 8.87282087481063 0.103255756058017 8.87238142754975 0.104178299234557 8.87249292431818 
! Port Impedance  50               0                50               0                50               0                

0.25             0.305846594708937 107.335623840882 0.664176400788719 -60.1552350587949 0.665179127793225 -60.4696301630316 
                0.664176400708999 -60.155235069445 0.239227943526518 93.5789639309079 0.502998330084177 -64.9368320307001 
                0.665179127806003 -60.4696301667671 0.50299833010391 -64.9368320258747 0.237469927476016 91.9965063868039 
! Gamma  !      0.10899741513367 9.2399901031309  0.106757082323133 9.23958928718521 0.107696925820951 9.23968480803411 
! Port Impedance  50               0                50               0                50               0                

0.26             0.303188679132901 104.35632242775  0.664509953955331 -62.5712332362874 0.665351177415888 -62.8841305712833 
                0.664509953876272 -62.5712332457193 0.234065311224754 90.6450202893025 0.493892177639579 -67.1071449895964 
                0.665351177425232 -62.8841305746084 0.493892177660094 -67.1071449853613 0.232710235102353 89.029265718407  
! Gamma  !      0.112528612454906 9.60708396456166 0.110242031218129 9.60672278659987 0.111198490343642 9.60680201739919 
! Port Impedance  50               0                50               0                50               0                

0.27             0.300433452845442 101.368743261921 0.664851173606306 -64.988932162619 0.665537530503045 -65.2996878896771 
                0.664851173529554 -64.9889321707661 0.228956556622754 87.7510390953051 0.484828578666235 -69.247738801109 
                0.665537530509009 -65.299687892503 0.484828578686717 -69.2477387975379 0.227997105607129 86.1051672909414 
! Gamma  !      0.116044355110689 9.97410623828958 0.113713182039598 9.973785587774   0.114685632077606 9.97384825356426 
! Port Impedance  50               0                50               0                50               0                

0.28             0.297582947467301 98.3723390521033 0.665198915024   -67.4083412774439 0.665737125250582 -67.7163767809059 
                0.665198914951084 -67.4083412842653 0.223909493714111 84.8959713587191 0.475818104699109 -71.3595715575731 
                0.665737125253318 -67.7163767831516 0.475818104718751 -71.3595715547212 0.223337375416392 83.2232443102952 
! Gamma  !      0.119546986524149 10.3410601436628 0.117172745292095 10.3407808166899 0.118160615877283 10.3408266730903 
! Port Impedance  50               0                50               0                50               0                

0.29             0.294639212419411 95.3665446407073 0.665552094815981 -69.8294653588124 0.665948909368332 -70.1342626483887 
                0.665552094748294 -69.8294653642902 0.218930790389527 82.0787554098528 0.466869704198201 -73.4435913208279 
                0.665948909368086 -70.1342626499826 0.466869704216237 -73.443591318732 0.218736832469876 80.3825150575826 
! Gamma  !      0.123038496347649 10.7079484610053 0.120622588372785 10.7077111799561 0.12162535800806 10.7077400062809 
! Port Impedance  50               0                50               0                50               0                

0.3              0.291604310569217 92.3507772163265 0.665909685876741 -72.2523053781027 0.666171844876419 -72.5534026664712 
                0.665909685815519 -72.2523053822399 0.214026085848703 79.2983279109667 0.457990873341078 -75.5007292388089 
                0.666171844873513 -72.5534026673524 0.457990873356803 -75.5007292374878 0.21420032835864 77.581993879303  
! Gamma  !      0.126520551992199 11.0747736291147 0.124064267326971 11.0745790586816 0.125081458172214 11.0745906524794 
! Port Impedance  50               0                50               0                50               0                

0.31             0.288480315269751 89.324436390313  0.666270712332822 -74.676859174606 0.666404911289485 -74.9738466850238 
                0.666270712279138 -74.6768591774242 0.209200102401984 76.5536328721644 0.449187815148749 -77.5318940070015 
                0.666404911284312 -74.9738466851436 0.44918781516154 -77.5318940064564 0.209731884855231 74.8207001497671 
! Gamma  !      0.12999453321326 11.4415378231797 0.12749906127271 11.441386583293  0.128530234280124 11.4413807560626 
! Port Impedance  50               0                50               0                50               0                

0.32             0.285269308871541 86.2869041271196 0.666634244691365 -77.103121981309 0.666647107610149 -77.3956380163678 
                0.666634244646122 -77.1031219828466 0.204456750483272 73.843628825468  0.440465586291348 -79.537967482964 
                0.666647107603155 -77.3956380156902 0.440465586300682 -79.5379674831803 0.205334793751144 72.0976653620071 
! Gamma  !      0.13346156732036 11.8082430164425 0.130928007182515 11.8081356925726 0.13197275762046 11.8081122664464 
! Port Impedance  50               0                50               0                50               0                

0.33             0.281973382732338 83.2375445102893 0.666999395331331 -79.5310868294962 0.666897453463496 -79.8188141149241 
                0.666999395295252 -79.5310868298066 0.199799226113936 71.1672943110821 0.43182823140185 -81.5198012779577 
                0.66689745345517 -79.8188141134271 0.431828231407311 -81.5198012789056 0.201011709305539 69.4119385035314 
! Gamma  !      0.136922563402366 12.1748910285041 0.134351933505474 12.1748281797588 0.135409886888271 12.1747869849765 
! Port Impedance  50               0                50               0                50               0                

0.34             0.278594638703088 80.1757033198494 0.667365314417719 -81.9607448559338 0.667154989630301 -82.2434071610773 
                0.667365314391354 -81.9607448550834 0.19523010039607 68.5236318271425 0.423278905082987 -83.4782141662223 
                0.667154989621157 -82.2434071587534 0.423278905084276 -83.4782141678588 0.19676473292399 66.7625898704259 
! Gamma  !      0.140378244555915 12.5414835627431 0.137771491685882 12.541465728131  0.138842300109988 12.5414066011545 
! Port Impedance  50               0                50               0                50               0                

0.35             0.275135192030325 77.1007073919402 0.667731186276808 -84.3920855328036 0.667418778176239 -84.6694445609157 
                0.667731186260526 -84.3920855308705 0.190751400881536 65.9116703896114 0.414819982047815 -85.4139901687685 
                0.667418778166807 -84.6694445577723 0.414819982044754 -85.4139901710389 0.192595489934992 64.1487134685225 
! Gamma  !      0.143829177528913 12.9080222349383 0.141187185041015 12.9080499381166 0.142270523916365 12.907972720261  
! Port Impedance  50               0                50               0                50               0                

0.36             0.271597175584456 74.0118637274418 0.668096226240585 -86.8250968373116 0.667687902325728 -87.0969493731149 
                0.66809622623458 -86.8250968343842 0.186364684870831 63.3304668433374 0.406453156008564 -87.3278771841186 
                0.667687902316535 -87.0969493691742 0.406453156001096 -87.3278771869583 0.188505198524444 61.569428144555  
! Gamma  !      0.147275799488507 13.2745085948345 0.144599394744443 13.274582347618  0.145694959902113 13.2744868840947 
! Port Impedance  50               0                50               0                50               0                

0.37             0.267982745299735 70.9084583128914 0.668459677948132 -89.259765375039 0.6679614661903  -89.5259406734932 
                0.668459677952427 -89.2597653712146 0.182071104852489 60.7791060593682 0.398179528039303 -89.220586052854 
                0.66796146618186 -89.5259406687925 0.398179528027488 -89.2205860561904 0.184494731033483 59.023877584154  
! Gamma  !      0.150718441827267 13.6409441420981 0.148008402855069 13.6410644469615 0.149115908007687 13.640950586248  
! Port Impedance  50               0                50               0                50               0                

0.38             0.264294086694239 67.7897546139205 0.668820811078073 -91.6960764686329 0.668238594430853 -91.9564338668573 
                0.668820811092523 -91.6960764640159 0.177871466408674 58.2567001479463 0.389999685200263 -91.0927899559229 
                0.668238594423652 -91.9564338614489 0.38999968518428 -91.0927899596773 0.180564667931603 56.5112293077509 
! Gamma  !      0.154157351057924 14.0073303378448 0.151414412460696 14.0074976896211 0.152533586989348 14.0073652830834 
! Port Impedance  50               0                50               0                50               0                

0.39             0.260533422326233 64.6549916985943 0.66917891947755 -94.1340142213107 0.66851843190904 -94.3884409547662 
                0.669178919501848 -94.1340142160121 0.173766278993981 55.7623868116067 0.381913770237732 -92.945124058331 
                0.668518431903521 -94.3884409487168 0.381913770217868 -92.9451240624204 0.176715344852634 54.0306727903307 
! Gamma  !      0.157592706934713 14.3736686127137 0.154817565086589 14.3738834996528 0.155948152126821 14.3737324013647 
! Port Impedance  50               0                50               0                50               0                

0.4              0.256703020036481 61.5033819453142 0.66953331964805 -96.5735615628572 0.668800143364337 -96.8219707668511 
                0.669533319681735 -96.5735615569929 0.169755800049319 53.2953269586481 0.373921543172777 -94.778185320092 
                0.66880014336089 -96.8219707602412 0.373921543149421 -94.7781853244312 0.172946893132669 51.5814168267317 
! Gamma  !      0.161024637992323 14.7399603722707 0.158217955567905 14.7402232766027 0.159359710367297 14.7400533433106 
! Port Impedance  50               0                50               0                50               0                

0.41             0.252805201823762 58.3341082872107 0.669883349545816 -99.0147002842638 0.66908291313871 -99.2570291623626 
                0.669883349588277 -99.0147002779536 0.165840072947096 50.854701694061  0.366022435572669 -96.5925324052   
                0.669082913137659 -99.2570291552857 0.366022435546303 -96.5925324097031 0.169259274321984 49.1626862608758 
! Gamma  !      0.164453234721771 15.106207000382  0.161615644609857 15.1065183984994 0.162768333130214 15.1063294896953 
! Port Impedance  50               0                50               0                50               0                

0.42             0.248842353202882 55.1463209421455 0.670228367653682 -101.457411065871 0.669365944959552 -101.693619207708 
                0.670228367704171 -101.457411059237 0.162018959282715 48.4397088027017 0.358215598266458 -98.38868562699  
                0.669365944961146 -101.69361920027 0.358215598237647 -98.3886856315723 0.165652309162047 46.7737181949202 
! Gamma  !      0.167878560613888 15.4724098610654 0.165010669268329 15.4727702234245 0.166174067006641 15.4725622014934 
! Port Impedance  50               0                50               0                50               0                

0.43             0.244816932900475 51.9391335744752 0.670567752281517 -103.901673502781 0.669648461782945 -104.131741334885 
                0.670567752339156 -103.901673495948 0.158292166034469 46.0495588379981 0.350499943225443 -100.167126874679 
                0.66964846178735 -104.131741327203 0.350499943194826 -100.167126879259 0.162125701527532 44.4137577926553 
! Gamma  !      0.171300661300893 15.8385702992291 0.168403051581682 15.8389800900488 0.169576942585342 15.8387528204657 
! Port Impedance  50               0                50               0                50               0                

0.44             0.240731482753818 48.7116188315434 0.670900901053671 -106.347466130377 0.669929705692791 -106.571393484936 
                0.670900901117463 -106.347466123469 0.154659268112391 43.6834709284993 0.342874180283513 -101.928299471228 
                0.669929705700076 -106.571393477135 0.34287418025179 -101.928299475729 0.158679057834439 42.0820537903367 
! Gamma  !      0.17471957201871 16.2046896406209 0.171792805575364 16.2051493174452 0.172976981628744 16.2049026690001 
! Port Impedance  50               0                50               0                50               0                

0.45             0.236588637691546 45.4628031944352 0.671227230543629 -108.794766451989 0.670208937846629 -109.012571239801 
                0.671227230612467 -108.79476644513 0.151119726808767 41.340668413894  0.335336849324073 -103.672607917037 
                0.670208937856766 -109.012571232017 0.335336849291993 -103.67260792139 0.155311902411307 39.7778538272254 
! Gamma  !      0.178135323600142 16.5707691912405 0.17517994284749 16.5712792044179 0.176374202808583 16.5710130494535 
! Port Impedance  50               0                50               0                50               0                

0.46             0.232391135692611 42.1916610787783 0.671546176018373 -111.24355097006 0.670485438455636 -111.455267945304 
                0.671546176091051 -111.243550963372 0.147672904650473 39.0203744213501 0.327886348511203 -105.400417477464 
                0.670485438468491 -111.455267937679 0.327886348479556 -105.400417481605 0.152023689322203 37.5003997070815 
! Gamma  !      0.181547947193614 16.9368102364151 0.178564476927612 16.9373710285371 0.179768626195164 16.9370852431854 
! Port Impedance  50               0                50               0                50               0                

0.47             0.228141827640977 38.8971081173319 0.671857191257612 -113.693795221575 0.670758506784207 -113.899474827358 
                0.671857191332843 -113.693795215178 0.144318077137194 36.7218074918474 0.320520959094084 -107.112053574798 
                0.670758506799538 -113.899474820038 0.320520959063683 -107.112053578676 0.148813811118838 35.2489227003472 
! Gamma  !      0.184957477885576 17.3028140396877 0.181946426583795 17.3034260450202 0.183160276677005 17.3031205094283 
! Port Impedance  50               0                50               0                50               0                

0.48             0.223843687018457 35.5779935517365 0.672159748416073 -116.145473818009 0.671027461153513 -116.345181102935 
                0.672159748492495 -116.145473812019 0.14105444183076 34.444177364188  0.31323886726625 -108.807800947214 
                0.671027461170969 -116.34518109607 0.313238867237923 -108.807800950786 0.145681604985211 33.0226389944151 
! Gamma  !      0.188363957387525 17.6687818416353 0.185325818235882 17.6694454855687 0.186549186470367 17.6691200841077 
! Port Impedance  50               0                50               0                50               0                

0.49             0.219499819406747 32.2330916561639 0.672453337900335 -118.598560489588 0.671291638933339 -118.792374086822 
                0.672453337976529 -118.598560484115 0.137881125239563 32.186681021223  0.306038183515556 -110.487902538316 
                0.671291638952459 -118.792374080563 0.306038183490131 -110.487902541553 0.142626356721849 30.8207453958124 
! Gamma  !      0.191767435931833 18.0347148587016 0.18870268761589 18.03543055724   0.189935396861162 18.0350851786898 
! Port Impedance  50               0                50               0                50               0                

0.5              0.215113471802095 28.8610921107894 0.672737468235347 -121.053028133314 0.671550396507248 -121.241039294733 
                0.672737468309852 -121.053028128463 0.134797187918712 29.9484990981905 0.298916959856989 -112.152558081257 
                0.671550396527464 -121.241039289231 0.298916959835286 -112.152558084145 0.139647302998131 28.642415383044  
! Gamma  !      0.195167973504493 18.4006142821071 0.192077080800426 18.4013824414103 0.193318959305603 18.4010169791185 
! Port Impedance  50               0                50               0                50               0                

0.51             0.210688041782119 25.4605892381628 0.673011665899653 -123.508848863847 0.671803109197662 -123.691160542935 
                0.673011665970976 -123.508848859717 0.131801628181148 27.7287927466269 0.291873205298836 -113.801922340944 
                0.671803109218301 -123.691160538337 0.291873205281648 -113.801922343482 0.136743632280137 26.4867956019377 
! Gamma  !      0.198565640527755 18.7664812768788 0.195449054724944 18.7673022928682 0.196699936000783 18.7669166448798 
! Port Impedance  50               0                50               0                50               0                

0.52             0.206227086604035 22.030070010935  0.673275475112533 -125.96599406613 0.672049171139589 -126.142720044201 
                0.673275475179171 -125.965994062811 0.128893384787586 25.5267010388523 0.284904899853319 -115.436102976526 
                0.672049171159884 -126.142720040651 0.284904899841407 -115.436102978729 0.133914484817914 24.3530028863962 
! Gamma  !      0.201960518091634 19.1323169810288 0.198818677275792 19.1331912390637 0.200078400022423 19.1327853082207 
! Port Impedance  50               0                50               0                50               0                

0.53             0.201734332356744 18.5679007354246 0.673528457560681 -128.424434448394 0.672287995094524 -128.595698499623 
                0.673528457621132 -128.424434445967 0.126071338953683 23.3413389874028 0.278010007365572 -117.055157984064 
                0.672287995113616 -128.595698497258 0.278010007359648 -117.055157985964 0.131158952049812 22.2401218763761 
! Gamma  !      0.205352697820485 19.4981225048992 0.202186027043321 19.4990503795263 0.203454435114244 19.4986240735376 
! Port Impedance  50               0                50               0                50               0                

0.54             0.197213683335861 15.0723123127705 0.673770192056601 -130.884140094104 0.672519012199251 -131.050075185593 
                0.673770192109386 -130.884140092642 0.123334315981436 21.1717962409444 0.27118648739981 -118.65909267583 
                0.672519012216204 -131.050075184541 0.27118648740053 -118.659092677478 0.128476075752519 20.1472032916508 
! Gamma  !      0.208742281449181 19.8638989306798 0.205551192807879 19.8648807854588 0.206828135201892 19.8644340169396 
! Port Impedance  50               0                50               0                50               0                

0.55             0.1926692318604  11.5413839788092 0.674000274125623 -133.345080511316 0.672741671647914 -133.505828035102 
                0.674000274169298 -133.345080510881 0.120681086788486 19.017136503178  0.264432306388719 -120.247856147937 
                0.672741671661723 -133.50582803548 0.264432306396668 -120.2478561494  0.125864847233651 18.0732629045324 
! Gamma  !      0.212129380173046 20.2296473121016 0.208914272820267 20.230683499505  0.210199603693975 20.2302161859884 
! Port Impedance  50               0                50               0                50               0                

0.56             0.18810526880228 7.97302542663692 0.674218315523089 -135.807224677913 0.672955440309556 -135.962933712448 
                0.674218315556266 -135.807224678557 0.118110369573945 16.8763977042624 0.25774544822155 -121.821337181614 
                0.672955440319166 -135.96293371436 0.257745448237236 -121.821337182979 0.123324206829293 16.01728123747   
! Gamma  !      0.215514113826315 20.5953686743018 0.212275373929067 20.5964595356877 0.213568952623553 20.5959715996083 
! Port Impedance  50               0                50               0                50               0                

0.57             0.183526295154514 4.36495722385335 0.674423943687927 -138.270541081288 0.673159802287291 -138.421367680425 
                0.674423943709289 -138.270541083049 0.11562083182284 14.7485929355897 0.251123924418232 -123.379359515195 