! Touchstone file from project ressonador
! Exported from HFSS 13.0.0
! Variables:
!  Hcobre = 0.017mm
!  Hsubstrato = 1.57mm
!  Lressonador = 43.6mm
!  Lsubstrato = 100mm
!  Wcobre = 3.06mm
!  Wsubstrato = 43.6mm
!  c = 300000000meter
!  d = 30mm
!  diference = 0.1mm
!  er = 4.3
!  fre = 950000000
!  lambda = 0.152287207001183meter
!  v = 144672846.651124meter
# GHZ S MA R 50.000000
! Modal data exported
! Port[1] = 1:1
! Port[2] = 2:1
0.1              0.102197043935573 -102.908496038781 0.990572721883967 -15.1226134393883 0.990572721859901 -15.1226134392219 0.10237409881622 -110.501294424578 
! Gamma  !      0.0508822001469853 3.78672125758883 0.051869936293545 3.79001194892458 
! Port Impedance  50               0                50               0                

0.11             0.112298698382977 -104.801187951251 0.989197563442879 -16.6349655783835 0.989197563419319 -16.6349655782143 0.112461832552631 -111.637697798918 
! Gamma  !      0.0543032726343596 4.16292091270333 0.0553270021455042 4.1664986594742  
! Port Impedance  50               0                50               0                

0.12             0.122395590460237 -106.637322001353 0.987702085588568 -18.1479084745529 0.987702085565532 -18.1479084743842 0.12254757773573 -112.836833023978 
! Gamma  !      0.0578559578892946 4.53893897693705 0.0589166932281414 4.54280249054583 
! Port Impedance  50               0                50               0                

0.13             0.132490555276245 -108.429432281639 0.986086817825844 -19.6616411087717 0.986086817803344 -19.6616411086071 0.13263393818225 -114.083922976944 
! Gamma  !      0.0615115379484365 4.91476194425931 0.0626099445056404 4.91890953596237 
! Port Impedance  50               0                50               0                

0.14             0.142586645847786 -110.186711719915 0.984351960261367 -21.1763674046968 0.984351960239409 -21.17636740454  0.142723835591632 -115.368635870545 
! Gamma  !      0.0652444733499792 5.29038527911105 0.0663808962439668 5.29481503747822 
! Port Impedance  50               0                50               0                

0.15             0.152687015153273 -111.916093611407 0.98249742465611 -22.6922949284839 0.98249742463469 -22.6922949283384 0.152820338504246 -116.683580135782 
! Gamma  !      0.0690325742861959 5.66581058370579 0.0702070720889647 5.67052049780779 
! Port Impedance  50               0                50               0                

0.16             0.162794848488796 -113.622931487739 0.980522869962528 -24.2096345067534 0.980522869941642 -24.2096345066227 0.162926563193524 -118.023362424484 
! Gamma  !      0.0728569795013455 6.04104360505554 0.0740693612796456 6.04603165059498 
! Port Impedance  50               0                50               0                

0.17             0.172913328941793 -115.311443527246 0.978427730095561 -25.7286004860177 0.97842773007519 -25.7286004859054 0.173045620853929 -119.383980249982 
! Gamma  !      0.0767020001590431 6.41609279159154 0.0779518633128302 6.42135699068402 
! Port Impedance  50               0                50               0                

0.18             0.183045623917198 -116.985013232492 0.976211233358887 -27.2494114011615 0.976211233339011 -27.2494114010708 0.183180594025549 -120.762420502443 
! Gamma  !      0.0805548749362091 6.79096823354126 0.0818416420728646 6.79650669523365 
! Port Impedance  50               0                50               0                

0.19             0.193194884256325 -118.646399073004 0.973872413948264 -28.7722908737733 0.973872413928856 -28.7722908737074 0.193334530749184 -122.156388311582 
! Gamma  !      0.0844054733384439 7.16568088430596 0.0857284269877359 7.17149183078754 
! Port Impedance  50               0                50               0                

0.2              0.203364250127807 -120.297884495756 0.971410116461057 -30.2974686112192 0.971410116442086 -30.2974686111809 0.203510448733672 -123.564120446755 
! Gamma  !      0.0882459758844437 7.54024199387627 0.0896042902969808 7.54632377600265 
! Port Impedance  50               0                50               0                

0.21             0.213556859802993 -121.941387661599 0.968822994524323 -31.8251814190124 0.968822994505751 -31.8251814190043 0.213711344449713 -124.984254678829 
! Gamma  !      0.0920705523718419 7.91466270470468 0.0934633219819607 7.9210138095641  
! Port Impedance  50               0                50               0                

0.22             0.223775858820093 -123.5785432261  0.966109504645405 -33.3556741710266 0.966109504627191 -33.3556741710511 0.223940203890611 -126.415736853146 
! Gamma  !      0.0958750530578451 8.28895377254164 0.0973013174478543 8.29557282516173 
! Port Impedance  50               0                50               0                

0.23             0.23402440801905 -125.21076423997 0.96326789628167 -34.8892007052036 0.963267896263769 -34.8892007052624 0.234200012990513 -127.857753780913 
! Gamma  !      0.099656722349786 8.66312538298561 0.10111548773957 8.67001114380947 
! Port Impedance  50               0                50               0                

0.24             0.244305689596289 -126.839289610195 0.960296198978972 -36.4260246282411 0.960296198961337 -36.4260246283358 0.244493766529706 -129.309684064005 
! Gamma  !      0.10341394048778 9.03718704058216 0.104904197903886 9.04433839998088 
! Port Impedance  50               0                50               0                

0.25             0.254622910769205 -128.465220881576 0.957192207275866 -37.9664200230445 0.95719220725845 -37.9664200231761 0.254824474905741 -130.771061544901 
! Gamma  !      0.107145995617482 9.41114751205889 0.108666735980035 9.41856348286213 
! Port Impedance  50               0                50               0                

0.26             0.264979304920002 -130.089550995908 0.953953463930635 -39.5106720590181 0.953953463913387 -39.5106720591872 0.265195168497411 -132.241547758908 
! Gamma  !      0.110852886451012 9.7850148091157  0.112403112865195 9.79269451791449 
! Port Impedance  50               0                50               0                

0.27             0.275378130256818 -131.713186945023 0.950577241908299 -41.0590775088024 0.950577241891171 -41.059077509009 0.275608899560282 -133.720910884847 
! Gamma  !      0.114535154236134 10.158796199324  0.116113891796441 10.1667388771177 
! Port Impedance  50               0                50               0                

0.28             0.285822666123183 -133.336967724135 0.947060525466829 -42.6119451767362 0.947060525449772 -42.6119451769799 0.286068741713069 -135.20900944339 
! Gamma  !      0.118193741839111 10.532498236254  0.119800045256593 10.5407032088678 
! Port Impedance  50               0                50               0                

0.29             0.296316207130435 -134.961678633741 0.943399990604548 -44.1695962448183 0.943399990587517 -44.1695962450983 0.296577787135424 -136.705779505081 
! Gamma  !      0.121829877253178 10.9061268020348 0.123462836604628 10.9145934806194 
! Port Impedance  50               0                50               0                

0.3              0.306862055299649 -136.588062721941 0.939591985071678 -45.7323645417024 0.939591985054632 -45.7323645420172 0.307139141621205 -138.211224523343 
! Gamma  !      0.125444978652562 11.2796871572375 0.127103723530813 11.2884150290707 
! Port Impedance  50               0                50               0                

0.31             0.31746351039191 -138.216829972286 0.935632508105235 -47.3005967395884 0.935632508088137 -47.300596739936 0.317755917631441 -139.725407153624 
! Gamma  !      0.12904057812555 11.6531839943065 0.130724280445441 11.6621726140472 
! Port Impedance  50               0                50               0                

0.32             0.328123858586484 -139.848664704286 0.931517190015328 -48.8746524829712 0.931517189998145 -48.8746524833492 0.328431225477611 -141.248442592713 
! Gamma  !      0.132618261365286 12.0266214918204 0.134326137053055 12.0358704733103 
! Port Impedance  50               0                50               0                

0.33             0.338846359640689 -141.484231550336 0.927241271729983 -50.4549044521874 0.927241271712691 -50.454904452593 0.339168162744341 -142.780493094879 
! Gamma  !      0.136179620819103 12.4000033676795 0.137910930585913 12.4095123763472 
! Port Impedance  50               0                50               0                

0.34             0.349634232636368 -143.124180294513 0.922799584392937 -52.0417383636308 0.922799584375518 -52.0417383640604 0.349969802035313 -144.321763409356 
! Gamma  !      0.139726220057211 12.7733329299425 0.14148026943138 12.7831016758336 
! Port Impedance  50               0                50               0                

0.35             0.360490640387733 -144.769149798691 0.91818652910292 -53.6355529074301 0.918186529085364 -53.6355529078801 0.36083917709906 -145.872496947116 
! Gamma  !      0.143259567392737 13.1466131245035 0.145035706160851 13.156641355939  
! Port Impedance  50               0                50               0                

0.36             0.371418672555183 -146.419771195061 0.913396056882578 -55.2367596223056 0.913396056864886 -55.2367596227717 0.37177926736395 -147.432972531071 
! Gamma  !      0.146781097049934 13.5198465791527 0.148578718234799 13.530134077001  
! Port Impedance  50               0                50               0                

0.37             0.38242132748006 -148.0766704879  0.908421648969549 -56.8457827062443 0.90842164895173 -56.8457827067221 0.38279298088471 -149.003501617725 
! Gamma  !      0.150292156425427 13.8930356438124 0.152110694908923 13.9035822163505 
! Port Impedance  50               0                50               0                

0.38             0.393501492726544 -149.740470678966 0.903256297530619 -58.4630587605593 0.903256297512694 -58.463058761044 0.393883135676554 -150.584425903282 
! Gamma  !      0.153793998212724 14.2661824269246 0.155632929094104 14.2769879052562 
! Port Impedance  50               0                50               0                

0.39             0.404661924288994 -151.411793508232 0.89789248691199 -60.0890364637989 0.897892486893989 -60.0890364642855 0.40505243938767 -152.176115245822 
! Gamma  !      0.157287776360638 14.639288828086  0.159146613125505 14.6503530620809 
! Port Impedance  50               0                50               0                

0.4              0.415905224396139 -153.091260883554 0.892322175554145 -61.7241761708426 0.892322175536111 -61.724176171326 0.416303467236401 -153.778965848936 
! Gamma  !      0.160774545011336 15.0123565671098 0.162652837573397 15.0236794218254 
! Port Impedance  50               0                50               0                

0.41             0.427233817817417 -154.779496058192 0.886536778718475 -63.3689494313351 0.886536778700462 -63.3689494318101 0.427638638115915 -155.393398662554 
! Gamma  !      0.164255259714756 15.3853872097415 0.166152592381143 15.3969685622893 
! Port Impedance  50               0                50               0                

0.42             0.438649926551503 -156.477124603114 0.880527152194607 -65.0238384203472 0.88052715217668 -65.0238384208087 0.439060188746543 -157.019857964374 
! Gamma  !      0.167730780344832 15.7583821902862 0.169646769746224 15.7702219271037 
! Port Impedance  50               0                50               0                

0.43             0.450155542752588 -158.184775211126 0.874283577182276 -66.6893352727903 0.874283577164511 -66.6893352732332 0.450570145734222 -158.658810090973 
! Gamma  !      0.171201875251733 16.1313428314123 0.173136168270422 16.1434408459044 
! Port Impedance  50               0                50               0                

0.44             0.461752399726264 -159.903080361573 0.867795746569528 -68.365941311615 0.867795746552011 -68.3659413120344 0.462170295372712 -160.310742291833 
! Gamma  !      0.174669226275441 16.504270361398  0.176621497997694 16.5166265519128 
! Port Impedance  50               0                50               0                

0.45             0.4734419408041  -161.632676867326 0.861052752860152 -70.0541661581693 0.861052752842981 -70.0541661585607 0.473862151007622 -161.976161682449 
! Gamma  !      0.178133434321854 16.8771659290791 0.180103386035255 16.8897801971846 
! Port Impedance  50               0                50               0                

0.46             0.485225285884272 -163.374206319684 0.854043078037492 -71.7545267112308 0.854043078020773 -71.7545267115901 0.485646917761965 -163.655594274698 
! Gamma  !      0.181595025265351 17.2500306167414 0.183582382517086 17.2629028657727 
! Port Impedance  50               0                50               0                

0.47             0.497103195405257 -165.128315441533 0.846754585689156 -73.4675459791191 0.846754585673002 -73.4675459794426 0.497525454406349 -165.349584063837 
! Gamma  !      0.185054455993313 17.6228654511865 0.187058966721469 17.6359955850355 
! Port Impedance  50               0                50               0                

0.48             0.509076031501042 -166.895656354261 0.839174515757743 -75.1937517468831 0.839174515742275 -75.1937517471675 0.509498232142467 -167.058692152153 
! Gamma  !      0.188512120450348 17.9956714131827 0.190533553197043 18.0090593353033 
! Port Impedance  50               0                50               0                

0.49             0.521143716070094 -168.676886759642 0.831289482326317 -76.9336750577697 0.83128948231166 -76.9336750580129 0.521565290056846 -168.783495889297 
! Gamma  !      0.191968355574246 18.3684494454919 0.194006497786799 18.3820950580972 
! Port Impedance  50               0                50               0                

0.5              0.533305685477212 -170.472670033773 0.823085474893975 -78.6878484849383 0.823085474880257 -78.6878484851385 0.533726186993686 -170.524588008996 
! Gamma  !      0.195423447043505 18.7412004596483 0.197478103467675 18.7551036630778 
! Port Impedance  50               0                50               0                

0.51             0.545560841598343 -172.283675226316 0.814547863646231 -80.45680416557  0.814547863633581 -80.4568041657263 0.545979949591953 -172.282575741071 
! Gamma  !      0.198877634778602 19.113925341646  0.200948625946165 19.1280860338823 
! Port Impedance  50               0                50               0                

0.52             0.557907498914582 -174.110576954575 0.805661409276734 -82.2410715650113 0.805661409265279 -82.2410715651239 0.558325016233976 -174.05807987655 
! Gamma  !      0.202331118157056 19.486624956676  0.204418278968589 19.5010430329946 
! Port Impedance  50               0                50               0                

0.53             0.570343327364482 -175.954055178244 0.796410277970651 -84.0411749332008 0.796410277960515 -84.0411749332709 0.570759176661894 -175.851733762325 
! Gamma  !      0.205784060916525 19.8593001530397 0.207887239319095 19.8739755057726 
! Port Impedance  50               0                50               0                

0.54             0.582865290675021 -177.814794837078 0.786778062215256 -85.8576304091425 0.786778062206555 -85.857630409172 0.583279507036229 -177.664182200086 
! Gamma  !      0.209236595731332 20.2319517653485 0.211355651489912 20.2468842837501 
! Port Impedance  50               0                50               0                

0.55             0.595469579913387 -179.693485330103 0.776747808159063 -87.6909427213098 0.776747808151905 -87.6909427213022 0.595882300239464 -179.496080222439 
! Gamma  !      0.212688828456564 20.6045806171108 0.214823632017266 20.6197701873102 
! Port Impedance  50               0                50               0                

0.56             0.608151542036391 178.409180188618 0.76630205029624 -89.5416014222282 0.766302050290717 -89.5416014221875 0.608562991269106 178.651908282976 
! Gamma  !      0.216140842040576 20.9771875227927 0.218291273483242 20.9926340278213 
! Port Impedance  50               0                50               0                

0.57             0.620905603264707 176.49250572624  0.755422854306789 -91.4100765835667 0.75542285430298 -91.4100765834984 0.621316077621779 176.779112132691 
! Gamma  !      0.219592700111861 21.3497732894288 0.22175864818912 21.3654766093127 
! Port Impedance  50               0                50               0                

0.58             0.633725187178328 174.555793611558 0.744091868933484 -93.296813863237 0.74409186893145 -93.2968138631475 0.634135034645388 174.884854623553 
! Gamma  !      0.223044450250017 21.7223387178517 0.225225811509617 21.7382987297587 
! Port Impedance  50               0                50               0                

0.59             0.646602627521255 172.5983459352   0.732290387822015 -95.2022288373356 0.732290387821791 -95.2022288372319 0.647012225933397 172.96845556165  
! Gamma  !      0.226496126953326 22.0948846035988 0.22869280494031 22.1111011820316 
! Port Impedance  50               0                50               0                

0.6              0.659529075821205 170.619466308515 0.71999942228898 -97.1267004660936 0.719999422290579 -97.1267004659839 0.659938808957154 171.029233582047 
! Gamma  !      0.229947754317333 22.4674117375482 0.232159658852482 22.4838847545756 
! Port Impedance  50               0                50               0                

0.61             0.672494404078317 168.618461983157 0.707199786010794 -99.0705635326815 0.707199786014201 -99.0705635325744 0.672904636282573 169.066508799364 
! Gamma  !      0.233399348440109 22.8399209063284 0.235626394970981 22.8566502318482 
! Port Impedance  50               0                50               0                

0.62             0.685487102959516 166.594646376013 0.693872192642366 -101.034099854509 0.693872192647537 -101.034099854414 0.685898152900007 167.079605830907 
! Gamma  !      0.236850919570555 23.2124128925414 0.239093028591409 23.2293983945682 
! Port Impedance  50               0                50               0                

0.63             0.698494176156781 164.547342046305 0.679997367374447 -103.017528015484 0.679997367381305 -103.017528015409 0.698906290414223 165.067857235286 
! Gamma  !      0.240302474016473 23.5848884748325 0.242559570553354 23.6021300198053 
! Port Impedance  50               0                50               0                

0.64             0.711501031831876 162.475884173074 0.665556173419496 -105.020991300188 0.665556173427933 -105.020991300143 0.711914359098452 163.030607410109 
! Gamma  !      0.243754015829071 23.9573484278368 0.24602602898637 23.9748458809415 
! Port Impedance  50               0                50               0                

0.65             0.724491372380626 160.379624581718 0.65052975437457 -107.044543421026 0.650529754384442 -107.04454342102 0.724905939114911 160.967216992036 
! Gamma  !      0.247205548280371 24.3297935220269 0.24949241084523 24.3475467475293 
! Port Impedance  50               0                50               0                

0.66             0.737447084108867 158.257936367451 0.634899693342863 -109.088131508309 0.634899693353996 -109.088131508348 0.737862772545871 158.877067801258 
! Gamma  !      0.250657075149521 24.7022245234841 0.252958723250519 24.7202333850694 
! Port Impedance  50               0                50               0                

0.67             0.750348128820655 156.110219161192 0.618648189601045 -111.151575668426 0.618648189613231 -111.151575668516 0.75076465826426 156.75956836974  
! Gamma  !      0.254108601833482 25.0746421936109 0.256424974650133 25.0929065547271 
! Port Impedance  50               0                50               0                

0.68             0.763172439775785 153.935905079172 0.601758253476301 -113.234544188313 0.601758253489304 -113.234544188458 0.763589352099297 154.614160088342 
! Gamma  !      0.257560136296865 25.4470472888014 0.25989117581658 25.4655670130027 
! Port Impedance  50               0                50               0                

0.69             0.775895824973826 151.734465390972 0.58421391994674 -115.336523148075 0.584213919960296 -115.336523148275 0.776312475216152 152.440324001603 
! Gamma  !      0.261011689875013 25.8194405600822 0.263357340694259 25.8382155113708 
! Port Impedance  50               0                50               0                

0.7              0.788491881257639 149.505417931519 0.566000481307146 -117.456778757064 0.566000481320971 -117.456778757316 0.788907434121188 150.237588270419 
! Gamma  !      0.264463277943628 26.1918227527357 0.266823487110173 26.2108527958991 
! Port Impedance  50               0                50               0                

0.71             0.800931923287593 147.248335270226 0.547104739061283 -119.594310089635 0.547104739075076 -119.594310089929 0.801345356213875 148.005536311534 
! Gamma  !      0.26791492046747 26.5641946059146 0.270289637360711 26.5834796068574 
! Port Impedance  50               0                50               0                

0.72             0.813184931999873 144.962853634676 0.52751527503513 -121.747788968613 0.527515275048582 -121.747788968935 0.813595045315439 145.743815608481 
! Gamma  !      0.271366642439884 26.936556852256  0.273755818686381 26.9560966783232 
! Port Impedance  50               0                50               0                

0.73             0.825217527702824 142.64868256661  0.50722274159276 -123.915482375047 0.507222741605561 -123.915482375376 0.82562296208978 143.452147170906 
! Gamma  !      0.274818474224108 27.3089102175012 0.277222063645595 27.3287047377933 
! Port Impedance  50               0                50               0                

0.74             0.836993973451451 140.305615264242 0.486220170846454 -126.095150706841 0.486220170858304 -126.095150707145 0.837393234704036 141.130335597975 
! Gamma  !      0.278270451806564 27.6812554201264 0.28068841039783 27.7013045058043 
! Port Impedance  50               0                50               0                

0.75             0.848476214731242 137.933539537037 0.464503303000309 -128.283912063426 0.464503303010928 -128.283912063665 0.848867705418027 138.778279676542 
! Gamma  !      0.281722616971602 28.0535931709888 0.28415490290576 28.0738966955674 
! Port Impedance  50               0                50               0                

0.76             0.859623961730177 135.53244926696  0.442070934647326 -130.478057820034 0.442070934656466 -130.478057820153 0.860006018999741 136.395983415983 
! Gamma  !      0.285175017406428 28.4259241729913 0.287621591065231 28.4464820126212 
! Port Impedance  50               0                50               0                

0.77             0.870394820526919 133.102456234354 0.41892528929068 -132.672796899942 0.418925289298135 -132.672796899873 0.870765758888554 133.983567389325 
! Gamma  !      0.288627706744287 28.7982491207675 0.291088530771283 28.8190611545054 
! Port Impedance  50               0                50               0                

0.78             0.880744479313885 130.643802127507 0.395072415175572 -134.86189326816 0.395072415181195 -134.861893267815 0.881102636814647 131.541280214944 
! Gamma  !      0.292080744553317 29.1705687003907 0.294555783927737 29.191634810456  
! Port Impedance  50               0                50               0                

0.79             0.890626955244552 128.15687051373  0.370522620785041 -137.037139415972 0.370522620788752 -137.037139415243 0.890970741075764 129.06950997548  
! Gamma  !      0.295534196277865 29.5428835891066 0.298023418407289 29.5642036611252 
! Port Impedance  50               0                50               0                

0.8              0.89999490658606 125.642198507826 0.345290968129889 -139.187570663104 0.34529096813169 -139.187570661853 0.900322847817129 126.56879533197  
! Gamma  !      0.298988133138491 29.9151944550905 0.301491507968433 29.9367683783262 
! Port Impedance  50               0                50               0                

0.81             0.908800013521139 123.100487833082 0.319397862325592 -141.298256432704 0.319397862325579 -141.298256430761 0.90911079840955 124.039836053007 
! Gamma  !      0.302442631996321 30.2875019572309 0.304960132135005 30.3093296248022 
! Port Impedance  50               0                50               0                

0.82             0.916993429143797 120.53261493272  0.292869811378773 -143.348374988936 0.292869811377144 -143.348374986085 0.917285944341344 121.483502643158 
! Gamma  !      0.305897775186927 30.6598067449378 0.308429376043625 30.6818880540228 
! Port Impedance  50               0                50               0                

0.83             0.924526299921499 117.939639758946 0.265740501272451 -145.308020997006 0.265740501269523 -145.308020992973 0.924799658919012 118.900844724307 
! Gamma  !      0.309353650328403 31.0321094579772 0.311899330263828 31.0544443100042 
! Port Impedance  50               0                50               0                

0.84             0.931350352176476 115.322812845361 0.238052482203557 -147.132655295971 0.238052482199774 -147.132655290398 0.931603912525975 116.293097800813 
! Gamma  !      0.312810350107895 31.40441072633   0.315370090595221 31.4269990271554 
! Port Impedance  50               0                50               0                

0.85             0.93741853803405 112.683580259819 0.209860103374836 -148.752892688349 0.20986010337079 -148.752892680754 0.937651905270744 113.661688027505 
! Gamma  !      0.316267972050392 31.7767111700748 0.3188417578456  31.7995528301483 
! Port Impedance  50               0                50               0                

0.86             0.942685730906832 110.023586041969 0.181235174768435 -150.054363996253 0.181235174764894 -150.054363985962 0.942898747660277 111.008234601541 
! Gamma  !      0.319726618273253 32.1490113992952 0.322314437593574 32.1721063338123 
! Port Impedance  50               0                50               0                

0.87             0.947109457088917 107.344671755494 0.152279132532822 -150.83441372945 0.1522791325308  -150.834413715466 0.947302176601168 108.334549418015 
! Gamma  !      0.323186395229533 32.5213120140094 0.325788239938857 32.5446601430514 
! Port Impedance  50               0                50               0                

0.88             0.950650646627877 104.648872831421 0.123152654201918 -150.69806889593 0.123152654202818 -150.698068876681 0.950823290744798 105.64263366715  
! Gamma  !      0.326647413442905 32.8936136041208 0.329263279243112 32.9172148527829 
! Port Impedance  50               0                50               0                

0.89             0.953274383565421 101.938411446949 0.0941602543794409 -148.769097747306 0.0941602543854439 -148.769097720122 0.953427286174857 102.934671109619 
! Gamma  !      0.330109787236622 33.2659167493903 0.332739673863869 33.2897710478982 
! Port Impedance  50               0                50               0                

0.9              0.954950633152044 99.2156857734488 0.0660512444798844 -142.722818901629 0.0660512444950417 -142.722818862019 0.955084170933808 100.213017846177 
! Gamma  !      0.333573634458723 33.6382220194277 0.336217545883796 33.6623293032426 
! Port Impedance  50               0                50               0                

0.91             0.955654922008611 96.4832555357906 0.0414460144971027 -124.999105443307 0.0414460145300313 -124.999105390721 0.955769435152747 97.4801884974725 
! Gamma  !      0.337039076205425 34.0105299737011 0.339697020837342 34.0348901836142 
! Port Impedance  50               0                50               0                

0.92             0.955368946663073 93.7438239490308 0.0312589208112233 -79.7204130127227 0.0312589208626864 -79.720413014436 0.955464652822812 94.7388388266427 
! Gamma  !      0.340506236544401 34.3828411615645 0.343178227436516 34.4074542437805 
! Port Impedance  50               0                50               0                

0.93             0.954081086612827 91.0002162324379 0.0465821772677982 -40.8924185608679 0.04658217730427 -40.8924186053973 0.954157991717742 91.991744966795  
! Gamma  !      0.343975242239444 34.7551561223005 0.346661297297375 34.7800220285121 
! Port Impedance  50               0                50               0                

0.94             0.951786800149224 88.2553550378538 0.0728500508471537 -27.1143733779987 0.072850050869422 -27.1143734130796 0.951844609766513 89.2417795515433 
! Gamma  !      0.347446222477825 35.1274753851795 0.350146364668571 35.1525940726306 
! Port Impedance  50               0                50               0                

0.95             0.948488884623692 85.512233261657  0.10188649724159 -22.437952369531 0.101886497255268 -22.4379523946161 0.948526919308023 86.4918851820117 
! Gamma  !      0.350919308601473 35.4997994695309 0.35363356616317 35.5251709010723 
! Port Impedance  50               0                50               0                

0.96             0.944197587512603 82.7738848287863 0.131770965612387 -21.1405282532486 0.131770965620457 -21.1405282709907 0.94421470505179 83.7450457899338 
! Gamma  !      0.354394633842945 35.8721288848291 0.357123040494735 35.8977530289643 