! Touchstone file from project guia_mathias
! Exported from HFSS 13.0.0
! Variables:
!  Hcobre = 0.015mm
!  Hsubstrato = 1.57mm
!  Lsubstrato = 100mm
!  Wcobre = 3.06mm
!  Wsubstrato = 30mm
# GHZ S MA R 50.000000
! Modal data exported
! Port[1] = 1:1
! Port[2] = 2:1
0.1              0.0219127862685447 -141.048498223896 0.994295868673105 -22.6338668541729 0.994295868673301 -22.6338668541732 0.0198170679491614 -95.9088718113146 
! Gamma  !      0.0518922790040102 3.82800494065523 0.0526845505472849 3.83355159764763 
! Port Impedance  50               0                50               0                

0.11             0.0234944733518584 -142.046056783442 0.993810562375941 -24.8845526360548 0.993810562375194 -24.8845526360192 0.0213067392827225 -100.154551136742 
! Gamma  !      0.056101208067969 4.20846111993203 0.0569430055350206 4.21454838619597 
! Port Impedance  50               0                50               0                

0.12             0.0250339168131552 -143.241294453666 0.993312928246943 -27.1327722214018 0.993312928245328 -27.1327722213287 0.0227690495434498 -104.096626783594 
! Gamma  !      0.0603165180616886 4.58856876135187 0.0612041529532761 4.59518994020091 
! Port Impedance  50               0                50               0                

0.13             0.0265289237858794 -144.588381944096 0.992807366764239 -29.3786440729364 0.992807366761835 -29.3786440728257 0.02420010415758 -107.792807878524 
! Gamma  !      0.0645109852925755 4.96836662205475 0.0654407933300633 4.9755166867938  
! Port Impedance  50               0                50               0                

0.14             0.0279782061967929 -146.05430509804 0.992297585888967 -31.622307263874 0.992297585885851 -31.6223072637271 0.0255970000932392 -111.2874740835  
! Gamma  !      0.0686665340761825 5.34789160157699 0.0696350530825521 5.35556683466588 
! Port Impedance  50               0                50               0                

0.15             0.029380969743418 -147.614911919853 0.991786630627046 -33.8639131270267 0.991786630623287 -33.8639131268462 0.0269574694309122 -114.615231433333 
! Gamma  !      0.0727723226266663 5.7271775215869  0.0737763961614464 5.73537521565993 
! Port Impedance  50               0                50               0                

0.16             0.0307366663139262 -149.252243568546 0.991276933382415 -36.1036183740246 0.991276933378073 -36.103618373814 0.0282796519992749 -117.803395409485 
! Gamma  !      0.0768229972764712 6.10625452124866 0.0778598232241689 6.11497273487837 
! Port Impedance  50               0                50               0                

0.17             0.0320448516075246 -150.952718969185 0.990770376773094 -38.3415796619833 0.990770376768217 -38.341579661747 0.0295619525945054 -120.873757054291 
! Gamma  !      0.0808171979223659 6.48514888651527 0.0818843389863907 6.4943862483859  
! Port Impedance  50               0                50               0                

0.18             0.0333051090291949 -152.705890473204 0.990268362248596 -40.5779494953896 0.990268362243223 -40.5779494951324 0.0308029532318915 -123.843862598958 
! Gamma  !      0.0847563376788184 6.86388316296769 0.0858517074127522 6.87363871786432 
! Port Impedance  50               0                50               0                

0.19             0.0345170140701309 -154.503584038935 0.989771879495144 -42.8128732991367 0.989771879489303 -42.8128732988634 0.032001360756112 -126.727956904685 
! Gamma  !      0.0886436438048219 7.24247643706536 0.089765478401724 7.25274952698531 
! Port Impedance  50               0                50               0                

0.2              0.0356801223480061 -156.33929999351 0.989281573104637 -45.0464874762246 0.989281573098344 -45.0464874759402 0.0331559767619867 -129.537690063596 
! Gamma  !      0.0924834286635823 7.62094470315365 0.0936302517269648 7.63173487715252 
! Port Impedance  50               0                50               0                

0.21             0.0367939705569384 -158.207791490641 0.988797804239282 -47.2789182624337 0.98879780423255 -47.2789182621431 0.0342656812453347 -132.282653970065 
! Gamma  !      0.0962805527578533 7.99930126034803 0.0974511378792756 8.01060820736123 
! Port Impedance  50               0                50               0                

0.22             0.0378580836459832 -160.104764898131 0.98832070602067 -49.5102812029321 0.988320706013505 -49.5102812026397 0.035329424413181 -134.970794656121 
! Gamma  !      0.100040042031063 8.37755710388184 0.101233376201298 8.38938060355762 
! Port Impedance  50               0                50               0                

0.23             0.038871984227666 -162.026664383783 0.987850232118946 -51.740681096286 0.987850232111348 -51.740681095996 0.0363462230990069 -137.608732393731 
! Gamma  !      0.103766825328625 8.75572129026507 0.104982074929727 8.76806117767917 
! Port Impedance  50               0                50               0                

0.24             0.0398352019541604 -163.970515033841 0.987386198544302 -53.9702122752078 0.987386198536273 -53.9702122749241 0.0373151595684394 -140.202012351839 
! Gamma  !      0.107465563064924 9.13380126572466 0.108702043320768 9.14665740663303 
! Port Impedance  50               0                50               0                

0.25             0.0407472816975234 -165.933806953502 0.986928318988267 -56.198959117486 0.986928318979808 -56.198959117212 0.0382353813811716 -142.755302319391 
! Gamma  !      0.111140543510355 9.51180315400528 0.112397691708728 9.52517542798505 
! Port Impedance  50               0                50               0                

0.26             0.0416077900468972 -167.914408284452 0.986476234266616 -58.4269967029716 0.98647623425773 -58.42699670271  0.0391061015457492 -145.272549647384 
! Gamma  !      0.11479562806103 9.88973200368705 0.116072980513095 9.90362029310227 
! Port Impedance  50               0                50               0                

0.27             0.0424163200366048 -169.910498799811 0.986029536516258 -60.6543915522203 0.98602953650695 -60.6543915519736 0.0399265985675605 -147.757106480839 
! Gamma  !      0.118434231108941 10.2675919975122 0.119731403613333 10.2819961807191 
! Port Impedance  50               0                50               0                

0.28             0.0431724942437123 -171.920518278813 0.985587788826586 -62.8812023990086 0.98558778881687 -62.8812023987786 0.04069621621676 -150.211830134335 
! Gamma  !      0.122059323629737 10.6453866273925 0.123375995108163 10.6603065749814 
! Port Impedance  50               0                50               0                

0.29             0.0438759665075616 -173.943125606278 0.985150540966399 -65.1074809624736 0.985150540956293 -65.1074809622618 0.0414143629790344 -152.639163845125 
! Gamma  !      0.12567345239459 11.0231188392167 0.127009351327721 11.0385544123867 
! Port Impedance  50               0                50               0                

0.3              0.0445264225699434 -175.977165743083 0.984717341819494 -67.333272695327 0.984717341809024 -67.3332726951344 0.042080511229642 -155.041201938321 
! Gamma  !      0.12927876888521 11.4007911515808 0.130633662177316 11.4167422019755 
! Port Impedance  50               0                50               0                

0.31             0.0451235799405624 -178.021642546056 0.984287749079127 -69.5586174928272 0.984287749068325 -69.5586174926544 0.0426941962109337 -157.419742539716 
! Gamma  !      0.13287706365299 11.7784057523191 0.134250747574791 11.7948721228279 
! Port Impedance  50               0                50               0                

0.32             0.0456671872757204 179.924304003906 0.983861336682901 -71.7835503533737 0.983861336671812 -71.783550353221 0.0432550149094956 -159.77633029083 
! Gamma  !      0.136469803116069 12.1559645763464 0.137862096007096 12.1729461025105 
! Port Impedance  50               0                50               0                

0.33             0.0461570235294252 177.861417199285 0.983437700401593 -74.0081019860986 0.983437700390268 -74.008101985966 0.0437626249300785 -162.112291000198 
! Gamma  !      0.140058166720516 12.5334693679029 0.141468903168324 12.550965879666  
! Port Impedance  50               0                50               0                

0.34             0.0465928971018537 175.790340374462 0.983016461931407 -76.2322993640327 0.983016461919907 -76.2322993639197 0.0442167434555173 -164.428759763546 
! Gamma  !      0.143643083077869 12.9109217298811 0.14507210932772 12.9289330534998 
! Port Impedance  50               0                50               0                

0.35             0.0469746451740413 173.711631585064 0.982597271781402 -78.456166223615 0.982597271769796 -78.456166223521 0.0446171463686576 -166.726703773612 
! Gamma  !      0.147225264190116 13.2883231625205 0.14867243457311 13.3068491225061 
! Port Impedance  50               0                50               0                

0.36             0.0473021333817543 171.62577658961  0.982179811196896 -80.679723512747 0.982179811185266 -80.6797235126712 0.0449636675963198 -169.006940796277 
! Gamma  !      0.15080523723172 13.6656750934046 0.152270411430635 13.6847155144083 
! Port Impedance  50               0                50               0                

0.37             0.0475752559467734 169.53320041689  0.981763793315878 -82.9029897904677 0.981763793304313 -82.9029897904089 0.0452561987181268 -171.270154097085 
! Gamma  !      0.154383373612254 14.0429789003814 0.155866414612139 14.0625336089664 
! Port Impedance  50               0                50               0                

0.38             0.0477939363506643 167.434277723043 0.981348963718243 -85.1259815817988 0.98134896370684 -85.1259815817558 0.0454946888656072 -173.516904449165 
! Gamma  !      0.157959915220138 14.4202359287604 0.159460687815017 14.4403047550255 
! Port Impedance  50               0                50               0                

0.39             0.0479581286046221 165.329342083059 0.980935100496539 -87.3487136915031 0.980935100485408 -87.3487136914747 0.0456791449200595 -175.747639730756 
! Gamma  !      0.161534997868497 14.7974475039097 0.16305336761643 14.818030282945  
! Port Impedance  50               0                50               0                

0.4              0.0480678191391529 163.218694317046 0.980522013951127 -89.5711994805039 0.980522013940381 -89.5711994804885 0.0458096320017251 -177.962702521001 
! Gamma  !      0.165108672043675 15.1746149401793 0.166644504580379 15.1957115133464 
! Port Impedance  50               0                50               0                

0.41             0.0481230293091622 161.102609918021 0.980109545991318 -91.7934511085921 0.980109545981081 -91.7934511085882 0.0458862742282017 179.837663978983 
! Gamma  !      0.168680921107002 15.5517395469146 0.170234081743411 15.5733497629515 
! Port Impedance  50               0                50               0                

0.42             0.048123818483485 158.981345622628 0.97969756930673 -94.0154797468597 0.979697569297135 -94.0154797468658 0.0459092557070816 177.653311440791 
! Gamma  !      0.172251677129423 15.9288226321873 0.173822030671443 15.9509463481426 
! Port Impedance  50               0                50               0                

0.43             0.048070287663129 156.855145147143 0.979285986358829 -96.2372957630579 0.979285986350012 -96.2372957630724 0.0458788217167662 175.484183117874 
! Gamma  !      0.175820834552796 16.3058655047547 0.177408245292347 16.3285025867606 
! Port Impedance  50               0                50               0                

0.44             0.0479625835497661 154.724244097154 0.978874728231046 -98.4589088828303 0.978874728223151 -98.4589088828515 0.0457952800205122 173.330311617808 
! Gamma  !      0.17938826187563 16.6828694746653 0.180992593711156 16.70601979856   
! Port Impedance  50               0                50               0                

0.45             0.0478009029655482 152.588874049342 0.978463753366441 -100.68032832951 0.978463753359617 -100.680328329536 0.0456590022522034 171.191817630736 
! Gamma  !      0.182953811558023 17.0598358528481 0.184574928210294 17.0834993046607 
! Port Impedance  50               0                50               0                

0.46             0.0475854975076255 150.44926579729  0.978053046214119 -102.901562944921 0.97805304620852 -102.901562944951 0.0454704253083667 169.068909547521 
! Gamma  !      0.18651732833299 17.4367659499604 0.188155093628378 17.4609424262704 
! Port Impedance  50               0                50               0                

0.47             0.0473166783061614 148.305651749507 0.977642615799319 -105.122621293371 0.977642615795102 -105.122621293404 0.0452300526795285 166.96188393933  
! Gamma  !      0.190078656100938 17.8136610747127 0.191732934299703 17.8383504828967 
! Port Impedance  50               0                50               0                

0.48             0.0469948207437353 146.158267466457 0.977232494226879 -107.343511750806 0.977232494224203 -107.343511750839 0.0449384556554532 164.871126907376 
! Gamma  !      0.193637643571994 18.190522531845  0.195308299723532 18.2157247902246 
! Port Impedance  50               0                50               0                

0.49             0.0466203689871342 144.007352323841 0.976822735123538 -109.564242580842 0.976822735122565 -109.564242580874 0.0445962743429243 162.797116348815 
! Gamma  !      0.197194148808058 18.5673516198962 0.198881049118754 18.5930666577972 
! Port Impedance  50               0                50               0                

0.5              0.0461938401801315 141.853149291219 0.976413412021057 -111.78482199921 0.976413412021949 -111.78482199924 0.0442042184416831 160.740425223282 
! Gamma  !      0.200748042803423 18.944149628872  0.202451055005842 18.9703773866078 
! Port Impedance  50               0                50               0                

0.51             0.0457158281481466 139.695903817701 0.976004616679292 -114.005258227923 0.976004616682211 -114.00525822795 0.0437630677337656 158.701725945739 
! Gamma  !      0.204299212230025 19.3209178378989 0.206018205944683 19.3476582666872 
! Port Impedance  50               0                50               0                

0.52             0.045187006472809 137.535861819384 0.975596457346177 -116.225559540268 0.975596457351285 -116.225559540291 0.0432736722536422 156.681796076432 
! Gamma  !      0.207847561461091 19.6976575129257 0.209582408544152 19.7249105747497 
! Port Impedance  50               0                50               0                

0.53             0.0446081308064308 135.373266765754 0.975189056949822 -118.445734297546 0.975189056957276 -118.445734297564 0.0427369521212073 154.681525529636 
! Gamma  !      0.211393013975287 20.0743699045237 0.213143588847262 20.102135571945  
! Port Impedance  50               0                50               0                

0.54             0.0439800403129084 133.208355863654 0.974782551216796 -120.665790978295 0.974782551226753 -120.665790978307 0.0421538970364946 152.701925581412 
! Gamma  !      0.214935513232604 20.4510562458173 0.216701693184521 20.4793345017502 
! Port Impedance  50               0                50               0                

0.55             0.0433036581422959 131.041355336889 0.974377086709906 -122.885738200532 0.974377086722516 -122.885738200537 0.0415255654539369 150.744140025434 
! Gamma  !      0.218475023103123 20.8277177505722 0.220256688577803 20.8565085880249 
! Port Impedance  50               0                50               0                

0.56             0.042579990870548 128.872474795985 0.973972818778561 -125.105584737401 0.97397281879397 -125.1055847374  0.0408530834748855 148.809458908275 
! Gamma  !      0.222011527920527 21.2043556114545 0.223808562767518 21.2336590332453 
! Port Impedance  50               0                50               0                

0.57             0.0418101268630024 126.701900685107 0.973569909414968 -127.325339526425 0.973569909433313 -127.325339526416 0.0401376435199288 146.899335375506 
! Gamma  !      0.225545032223759 21.5809709984707 0.227357323927231 21.6107870169236 
! Port Impedance  50               0                50               0                

0.58             0.0409952335491067 124.529788780154 0.97316852501001 -129.545011672425 0.973168525031424 -129.545011672408 0.0393805028673904 145.015406282954 
! Gamma  !      0.229075560242534 21.9575650575921 0.23090300012203 21.9878936942181 
! Port Impedance  50               0                50               0                

0.59             0.04013655362578 122.3562556921   0.972768834003653 -131.764610444025 0.972768834028256 -131.764610444001 0.0385829821715403 143.159517380572 
! Gamma  !      0.232603155175436 22.3341389095627 0.234445638559839 22.3649801947295 
! Port Impedance  50               0                50               0                

0.6              0.0392354002365235 120.181369300595 0.972371004426019 -133.984145263544 0.972371004453922 -133.984145263513 0.0377464641040834 141.333754068663 
! Gamma  !      0.236127878303075 22.710693648886  0.237985304678509 22.7420476214823 
! Port Impedance  50               0                50               0                

0.61             0.0382931512020912 118.005138002014 0.971975201326891 -136.203625689958 0.971975201358195 -136.203625689919 0.0368723922962973 139.54047896996  
! Gamma  !      0.23964980797315 23.0872303429858 0.241522081105808 23.1190970500816 
! Port Impedance  50               0                50               0                

0.62             0.0373112424051833 115.827498599908 0.971581584093302 -138.423061394555 0.971581584128093 -138.423061394509 0.0359622707982478 137.782377872151 
! Gamma  !      0.243169038489219 23.4637500315315 0.245056066524306 23.4961295280383 
! Port Impedance  50               0                50               0                

0.63             0.0362911604555422 113.648302589137 0.971190303656822 -140.642462128839 0.971190303695173 -140.642462128786 0.0350176643178301 136.062515995241 
! Gamma  !      0.246685678930511 23.8402537259198 0.248587374468632 23.8731460742528 
! Port Impedance  50               0                50               0                

0.64             0.0352344347824039 111.46730048074  0.970801499594375 -142.861837684181 0.970801499636346 -142.861837684123 0.0340401995590255 134.384407054872 
! Gamma  !      0.250199851926122 24.216742408901  0.252116132078526 24.2501476786457 
! Port Impedance  50               0                50               0                

0.65             0.0341426293181927 109.284123672563 0.970415297128546 -145.081197842748 0.970415297174178 -145.081197842684 0.033031568049931 132.752098264143 
! Gamma  !      0.253711692403401 24.5932170343413 0.255642478827564 24.6271353019257 
! Port Impedance  50               0                50               0                

0.66             0.0330173339504259 107.098263175817 0.970031804035524 -147.300552319186 0.970031804084842 -147.300552319119 0.0319935309427042 131.170275292924 
! Gamma  !      0.257221346327235 24.9696785271085 0.259166565244256 25.0041098754832 
! Port Impedance  50               0                50               0                

0.67             0.0318601559284317 104.909044237759 0.969651107470929 -149.519910692633 0.969651107523938 -149.519910692562 0.0309279263880559 129.644392352285 
! Gamma  !      0.260728969444174 25.3461277830717 0.262688551639478 25.3810723013982 
! Port Impedance  50               0                50               0                

0.68             0.0306727114179247 102.715595522001 0.969273270725677 -151.739282328614 0.969273270782363 -151.73928232854 0.0298366802478959 128.180834081291 
! Gamma  !      0.264234726042966 25.7225656692035 0.266208606851763 25.758023452552  
! Port Impedance  50               0                50               0                

0.69             0.0294566174009037 100.516810969068 0.968898329925867 -153.958676290501 0.968898329986196 -153.958676290427 0.0287218211280907 126.787117900718 
! Gamma  !      0.267738787740929 26.0989930237745 0.269726907019846 26.1349641728322 
! Port Impedance  50               0                50               0                

0.7              0.0282134841217383 98.3113016808912 0.968526290692215 -156.178101240251 0.968526290756129 -156.178101240177 0.0275855010123618 125.472148113074 
! Gamma  !      0.27124133230379 26.4754106566308 0.273243634390038 26.5118952774209 
! Port Impedance  50               0                50               0                

0.71             0.0269449082848869 96.097334027354  0.96815712477589 -158.397565328244 0.968157124843309 -158.397565328172 0.0264300231920915 124.24653645614  
! Gamma  !      0.274742542505002 26.8518193495446 0.276758976164384 26.8888175531561 
! Port Impedance  50               0                50               0                

0.72             0.025652467217988 93.8727484567949 0.967790766688748 -160.617076072148 0.967790766759566 -160.617076072078 0.0252578797628989 123.123008272353 
! Gamma  !      0.278242605029203 27.2282198566291 0.280273123394183 27.2657317589584 
! Port Impedance  50               0                50               0                

0.73             0.024337714230415 91.6348508689691 0.967427110346757 -162.83664022482 0.967427110420845 -162.836640224754 0.0240718017654742 122.116919148191 
! Gamma  !      0.281741709423264 27.6046129048091 0.283786269922277 27.6426386263131 
! Port Impedance  50               0                50               0                

0.74             0.023002175428348 89.3802643105742 0.967066005746067 -165.056263631381 0.967066005823267 -165.056263631321 0.022874826180646 121.24691391981  
! Gamma  !      0.285240047097396 27.9809991943407 0.287298611376476 28.0195388598012 
! Port Impedance  50               0                50               0                

0.75             0.0216473483040089 87.1047221953404 0.966707255691511 -167.275951075694 0.966707255771639 -167.275951075642 0.0216703855774658 120.535768124856 
! Gamma  !      0.288737810377891 28.3573793993709 0.290810344215639 28.3964331376707 
! Port Impedance  50               0                50               0                

0.76             0.0202747025181271 84.8027734753923 0.966350612597511 -169.495706116581 0.966350612680354 -169.495706116537 0.0204624284281735 120.011460262058 
! Gamma  !      0.292235191612361 28.7337541685324 0.294321664829201 28.7733221124426 
! Port Impedance  50               0                50               0                

0.77             0.0188856834759276 82.4673519557038 0.965995775381282 -171.715530914228 0.965995775466595 -171.715530914194 0.0192555811428297 119.708528597615 
! Gamma  !      0.295732382327716 29.1101241255662 0.297832768690302 29.150206411545  
! Port Impedance  50               0                50               0                

0.78             0.0174817196248396 80.0891300413738 0.965642386468013 -173.935426047312 0.965642386555525 -173.93542604729 0.0180553669078253 119.669761391402 
! Gamma  !      0.299229572440614 29.4864898699675 0.301343849562198 29.5270866379691 
! Port Impedance  50               0                50               0                

0.79             0.0160642350100301 77.6555192472071 0.965290028927257 -176.155390321491 0.965290029016663 -176.155390321481 0.0168685013962855 119.94823776764  
! Gamma  !      0.302726949519686 29.8628519776481 0.304855098757182 29.9039633709433 
! Port Impedance  50               0                50               0                

0.8              0.0146346697921043 75.1490698321502 0.964938223759147 -178.375420569962 0.964938223850109 -178.375420569966 0.0157032906330689 120.609642845216 
! Gamma  !      0.306224698098497 30.2392110016128 0.308366704446912 30.2808371666191 
! Port Impedance  50               0                50               0                

0.81             0.0131945137817084 72.5448025304627 0.964586427348373 179.404488553094 0.964586427440528 179.404488553076 0.0145701591983701 121.734554660872 
! Gamma  !      0.309722999037941 30.6155674726445 0.311878851022784 30.6577085587665 
! Port Impedance  50               0                50               0                

0.82             0.0117453630533148 69.805541031049  0.964234029102812 177.18434478533  0.964234029195749 177.184344785296 0.0134823306699833 123.419912197184 
! Gamma  !      0.313222028936513 30.9919218999939 0.315391718504736 31.0345780594733 
! Port Impedance  50               0                50               0                

0.83             0.0102890211427735 66.8732594931168 0.963880349292762 174.964158474372 0.963880349386047 174.964158474322 0.0124566507139532 125.777921193377 
! Gamma  !      0.316721959586775 31.3682747720717 0.318905481996748 31.4114461598465 
! Port Impedance  50               0                50               0                

0.84             0.00882769483789259 63.651851563989  0.963524637105476 172.743942800302 0.963524637198636 172.743942800236 0.0115144543956611 128.929039437239 
! Gamma  !      0.320222957476179 31.7446265571392 0.322420311187141 31.7883133307118 
! Port Impedance  50               0                50               0                

0.85             0.00736441372039036 59.9695559237623 0.963166068928267 170.523714001475 0.963166069020794 170.523714001393 0.0106821829196108 132.98361476911  
! Gamma  !      0.323725183330323 32.1209777039957 0.325936369891721 32.1651800233094 
! Port Impedance  50               0                50               0                

0.86             0.00590405544563822 55.486701987197  0.962803746872123 168.303491602625 0.962803746963477 168.303491602527 0.00999111568486561 138.005972464676 
! Gamma  !      0.327228791696684 32.4973286426595 0.329453815637747 32.5420466699831 
! Port Impedance  50               0                50               0                

0.87             0.00445633349070055 49.4296536657379 0.962436697546103 166.083298644224 0.962436697635701 166.083298644111 0.00947521197501278 143.960152925233 
! Gamma  !      0.330733930566808 32.8736797850408 0.33297279928668 32.918913684861  
! Port Impedance  50               0                50               0                

0.88             0.00304700001662639 39.6292441353177 0.962063871091175 163.863161912072 0.962063871178404 163.863161911944 0.00916614512833987 150.654363144774 
! Gamma  !      0.33424074103495 33.2500315256054 0.336493464693657 33.2957814645268 
! Port Impedance  50               0                50               0                

0.89             0.00177909933423494 17.9108041553485 0.961684140480585 161.643112166125 0.961684140564795 161.643112165984 0.00908596431103934 157.725955963143 
! Gamma  !      0.337749356991171 33.6263842420272 0.340015948401668 33.6726503886787 
! Port Impedance  50               0                50               0                

0.9              0.00123175860223178 -40.2998697022851 0.961296301092186 159.423184367643 0.961296301172685 159.423184367491 0.00924032668920613 164.707033634318 
! Gamma  !      0.341259904846901 34.0027382958277 0.343540379368414 34.0495208207757 
! Port Impedance  50               0                50               0                

0.91             0.00208288374300437 -87.533302617015 0.96089907055677 157.203417903821 0.960899070632838 157.20341790366  0.0096164231525613 171.153829575992 
! Gamma  !      0.34477250329105 34.3790940330025 0.34706687872389 34.4263931086708 
! Port Impedance  50               0                50               0                

0.92             0.00340706320637674 -104.493963195218 0.960491088885298 154.983856809167 0.960491088956173 154.983856809    0.0101870591727324 176.760709044319 
! Gamma  !      0.348287263074762 34.7554517846334 0.350595559556779 34.8032675852287 
! Port Impedance  50               0                50               0                

0.93             0.00482547454500001 -112.972772489702 0.960070918876992 152.764549983052 0.960070918941877 152.764549982883 0.0109180765386834 -178.604390722657 
! Gamma  !      0.351804286822993 35.1318118674855 0.354126526727789 35.1801445689283 
! Port Impedance  50               0                50               0                

0.94             0.00626948679486114 -118.560922714354 0.959637046810052 150.545551402982 0.959637046868116 150.545551402815 0.0117750366333847 -174.934843234484 
! Gamma  !      0.355323668871134 35.5081745845887 0.357659876708158 35.5570243644497 
! Port Impedance  50               0                50               0                

0.95             0.00771908672958543 -122.869498000876 0.959187883416917 148.326920333329 0.959187883467294 148.326920333169 0.0127271313249507 -172.144021525495 
! Gamma  !      0.358845495124982 35.8845402258029 0.361195697441596 35.9339072632444 
! Port Impedance  50               0                50               0                

0.96             0.00916541736672578 -126.51017399448 0.958721765147037 146.108721529425 0.958721765188828 146.108721529277 0.0137485429975168 -170.113889412131 
! Gamma  !      0.362369842942432 36.2609090683671 0.364734068228012 36.310793544089  
! Port Impedance  50               0                50               0                
